6
Lattice="39.333 0.0 0.0 0.0 39.333 0.0 0.0 0.0 39.333" Properties=species:S:1:pos:R:3:masses:R:1:momenta:R:3:forces:R:3 pbc="T T T"
C        2.84471237      16.20659883      12.87885581      12.01100000      -0.64893533      -0.88851857       0.20920508    -150.69261302    -302.22363597      20.51584574
H        2.59076534      15.16518998      12.80652107       1.00800000      -0.04498909      -0.09941890      -0.36917045     -66.39507125      19.35094453       1.35070790
H        2.68798713      16.88186402      12.13820040       1.00800000      -0.17085938      -0.56430994      -0.05201559    -114.91434576     182.34309011    -202.64007187
H        3.59549320      16.41190474      13.50132179       1.00800000      -0.35897095      -0.37873370      -0.14863300     256.47684604      91.26859486     277.60973758
Cl       1.15544186      16.66472924      14.53420872      35.45000000       1.34167923       0.81707228       1.08365012      52.65789827       1.71574684     -69.51396449
Cl       4.68220150      15.26005696      11.57214639      35.45000000      -0.11706713       1.11950586      -0.71638404      22.59088568       7.97808059     -27.22856377
